&FCI NORB = 30, NELEC = 7, MS2 = 7, ISYM = 1, NROOT = 1, MAXIT = 200,
 ORBSYM = 1,2,1,2,1,2,1,2,1,2,1,2,1,2,1,2,1,2,1,2,1,2,1,2,1,2,1,2,1,2,
 MEMORY = 300000000 /
0.4473211247724916	1	1	1	1
-0.40635977105343735	2	1	2	1
0.6259919502912837	2	2	1	1
0.12977728134069944	2	2	2	2
-0.17867082551879201	3	1	1	1
0.4962146689505843	3	1	2	2
-0.6748854944693764	3	1	3	1
0.060188132909130804	3	1	3	3
0.07032877126888289	3	2	2	1
-0.6016520863522647	3	2	3	2
0.6148459997525558	3	3	1	1
0.5546578668434251	3	3	2	2
0.060188132909130804	3	3	3	1
-0.03470695586952757	3	3	3	3
-0.3360309997845544	4	1	2	1
-0.5313233150833817	4	1	3	2
-0.8673543148679361	4	1	4	1
0.021690706540809193	4	1	4	3
-0.16752487498006408	4	2	1	1
0.07133408344785871	4	2	2	2
-0.2388589584279228	4	2	3	1
0.6495529556220834	4	2	3	3
-0.8170778306021474	4	2	4	2
0.08335979477859973	4	2	4	4
-0.07575144790408518	4	3	2	1
0.09744215444489437	4	3	3	2
0.021690706540809193	4	3	4	1
-0.7264548313763117	4	3	4	3
0.6102872609756012	4	4	1	1
0.5474685037128707	4	4	2	2
0.0628187572627304	4	4	3	1
0.5269274661970014	4	4	3	3
0.08335979477859973	4	4	4	2
-0.14462526142063803	4	4	4	4
-0.011145950538727916	5	1	1	1
0.42488058550272556	5	1	2	2
-0.4360265360414534	5	1	3	1
-0.5893648227129527	5	1	3	3
0.5782188721742247	5	1	4	2
-0.020541037515869325	5	1	4	4
-1.0142454082156782	5	1	5	1
0.009395086977141408	5	1	5	3
-0.021486130654633583	5	1	5	5
0.3306083231493522	5	2	2	1
0.02711338317601149	5	2	3	2
0.3577217063253636	5	2	4	1
-0.6507033834722264	5	2	4	3
-0.9813117066215787	5	2	5	2
0.03377216944664221	5	2	5	4
-0.1629661362031094	5	3	1	1
0.078523446578413	5	3	2	2
-0.24148958278152238	5	3	3	1
0.0879185335555544	5	3	3	3
-0.2508846697586638	5	3	4	2
0.7549125223962392	5	3	4	4
0.009395086977141408	5	3	5	1
-0.9178786585993487	5	3	5	3
0.09608700299397749	5	3	5	5
0.07845322145981655	5	4	2	1
-0.10166593629105562	5	4	3	2
-0.02321271483123907	5	4	4	1
0.11222539090645876	5	4	4	3
0.03377216944664221	5	4	5	2
-0.8174290500944995	5	4	5	4
0.6079811729037456	5	5	1	1
0.5436569679482526	5	5	2	2
0.06432420495549307	5	5	3	1
0.522170837293619	5	5	3	3
0.08581033561012666	5	5	4	2
0.5118941699097682	5	5	4	4
-0.021486130654633583	5	5	5	1
0.09608700299397749	5	5	5	3
-0.22687050513577908	5	5	5	5
-0.005422676635202299	6	1	2	1
-0.5042099319073703	6	1	3	2
-0.5096326085425726	6	1	4	1
-0.6290126769314172	6	1	4	3
-0.623590000296215	6	1	5	2
0.01055945461540314	6	1	5	4
-1.1332226088387876	6	1	6	1
0.005136777980200841	6	1	6	3
-0.011191977734705288	6	1	6	5
-0.0157046893156826	6	2	1	1
0.41769122237217127	6	2	2	2
-0.43339591168785385	6	2	3	1
-0.0277304006464236	6	2	3	3
0.012025711330741	6	2	4	2
-0.6920937651335087	6	2	4	4
-0.4454216230185949	6	2	5	1
0.6763890758178263	6	2	5	3
-0.031762798038484426	6	2	5	5
-1.10978498750568	6	2	6	2
0.016058108722801827	6	2	6	4
-0.032834771713126	6	2	6	6
-0.32790654959362076	6	3	2	1
-0.031337165022172736	6	3	3	2
-0.3592437146157935	6	3	4	1
0.036473943002373575	6	3	4	3
0.3643804925959943	6	3	5	2
-0.7389758286346828	6	3	5	4
0.005136777980200841	6	3	6	1
-1.0668823782283037	6	3	6	3
0.04160309771751533	6	3	6	5
-0.16066004813125395	6	4	1	1
0.08233498234303112	6	4	2	2
-0.24299503047428506	6	4	3	1
0.0926751624589368	6	4	3	3
-0.2533352105901907	6	4	4	2
0.09839309106583295	6	4	4	4
0.010340180115905671	6	4	5	1
-0.2590531391970869	6	4	5	3
0.8348516780395246	6	4	5	5
0.016058108722801827	6	4	6	2
-0.9955117261707788	6	4	6	4
0.10425107102244419	6	4	6	6
-0.07999407693083563	6	5	2	1
0.10415734108571753	6	5	3	2
0.024163264154881903	6	5	4	1
-0.11534931882042283	6	5	4	3
-0.03535524188958719	6	5	5	2
0.12159717464835097	6	5	5	4
-0.011191977734705288	6	5	6	1
0.04160309771751533	6	5	6	3
-0.8887591084143226	6	5	6	5
0.6066539023235988	6	6	1	1
0.5413879904326623	6	6	2	2
0.0652659118909366	6	6	3	1
0.5192715297480576	6	6	3	3
0.08738237257554125	6	6	4	2
0.5085532187195362	6	6	4	4
-0.022116460684604638	6	6	5	1
0.0981006836040626	6	6	5	3
0.5024028313011547	6	6	5	5
-0.032834771713126	6	6	6	2
0.10425107102244419	6	6	6	4
-0.2924708105596001	6	6	6	6
0.004558738776954683	7	1	1	1
0.007189363130554277	7	1	2	2
-0.0026306243535995934	7	1	3	1
-0.561634422066529	7	1	3	3
0.5661931608434837	7	1	4	2
0.6715527276176395	7	1	4	4
-0.5688237851970833	7	1	5	1
-0.6669939888406847	7	1	5	3
0.01027666738385084	7	1	5	5
0.6643633644870852	7	1	6	2
-0.005717928606896156	7	1	6	4
0.010718311028521367	7	1	6	6
-1.2331871496841684	7	1	7	1
0.0030873042532965625	7	1	7	3
-0.006159572251566683	7	1	7	5
0.01103956130871161	7	1	7	7
0.008124450190933668	7	2	2	1
0.4999861500612091	7	2	3	2
0.5081106002521427	7	2	4	1
0.014783236461564389	7	2	4	3
0.00665878627063072	7	2	5	2
-0.7157631138034437	7	2	5	4
0.5147693865227734	7	2	6	1
-0.7076386636125102	7	2	6	3
0.017439833562633428	7	2	6	5
-1.2157492638646528	7	2	7	2
0.009315383371699761	7	2	7	4
-0.01820424369143847	7	2	7	6
-0.018010777387538052	7	3	1	1
0.41387968660755314	7	3	2	2
-0.43189046399509123	7	3	3	1
-0.032487029549805986	7	3	3	3
0.014476252162267937	7	3	4	2
-0.03557433380310255	7	3	4	4
-0.4463667161573591	7	3	5	1
0.0175635564155645	7	3	5	3
-0.7705274730840316	7	3	5	5
-0.4494540204106557	7	3	6	2
0.7525166956964937	7	3	6	4
-0.038985159131507574	7	3	6	6
0.0030873042532965625	7	3	7	1
-1.184407159691585	7	3	7	3
0.020974381743969525	7	3	7	5
-0.03998877089836642	7	3	7	7
0.3263656941226017	7	4	2	1
0.03382856981683466	7	4	3	2
0.3601942639394364	7	4	4	1
-0.039597870916337645	7	4	4	3
-0.36596356503893934	7	4	5	2
0.04314395318853442	7	4	5	4
-0.005769301099502989	7	4	6	1
0.3695096473111361	7	4	6	3
-0.8087650314834868	7	4	6	5
0.009315383371699761	7	4	7	2
-1.1351307256060885	7	4	7	4
0.047130352572001	7	4	7	6
-0.15933277755110709	7	5	1	1
0.08460395985862151	7	5	2	2
-0.2439367374097286	7	5	3	1
0.09557447000449823	7	5	3	3
-0.2549072475556053	7	5	4	2
0.10173404225606492	7	5	4	4
0.010970510145876721	7	5	5	1
-0.261066819807172	7	5	5	3
0.10557834160259104	7	5	5	5
0.017130082397443402	7	5	6	2
-0.26491111915369814	7	5	6	4
0.899124712883199	7	5	6	6
-0.006159572251566683	7	5	7	1
0.020974381743969525	7	5	7	3
-1.058457490434306	7	5	7	5
0.10997154567002236	7	5	7	7
0.08095592086087648	7	6	2	1
-0.10575260324219486	7	6	3	2
-0.024796682381318394	7	6	4	1
0.1173872315584156	7	6	4	3
0.036431310697539104	7	6	5	2
-0.12395684693363335	7	6	5	4
0.01163462831622071	7	6	6	1
-0.04300092607275687	7	6	6	3
0.12808627343287748	7	6	6	5
-0.01820424369143847	7	6	7	2
0.047130352572001	7	6	7	4
-0.9473215127893616	7	6	7	6
0.605820298770415	7	7	1	1
0.5399262371355771	7	7	2	2
0.06589406163483795	7	7	3	1
0.5173684291454348	7	7	3	3
0.08845186962498017	7	7	4	2
0.5063288678367233	7	7	4	4
-0.022557807990142214	7	7	5	1
0.09949143093369178	7	7	5	3
0.49993746623721064	7	7	5	5
-0.033597369298853826	7	7	6	2
0.10588283253320438	7	7	6	4
0.4958487531003926	7	7	6	6
0.01103956130871161	7	7	7	1
-0.03998877089836642	7	7	7	3
0.10997154567002236	7	7	7	5
-0.3469857774928611	7	7	7	7
0.0027017735557313695	8	1	2	1
-0.004223781846161248	8	1	3	2
-0.0015220082904298785	8	1	4	1
-0.6142294404698528	8	1	4	3
-0.6169312140255843	8	1	5	2
-0.7052036591880407	8	1	5	4
-0.6184532223160142	8	1	6	1
-0.7025018856323093	8	1	6	3
0.00624785582792814	8	1	6	5
-0.7009798773418795	8	1	7	2
0.003546082272196771	8	1	7	4
-0.006569615375217761	8	1	7	6
-1.3194330996578936	8	1	8	1
0.0020240739817668925	8	1	8	3
-0.0038678418194863914	8	1	8	5
0.006810906923918029	8	1	8	7
0.006864826848810136	8	2	1	1
0.011000898895172402	8	2	2	2
-0.004136072046362267	8	2	3	1
-0.5568777931631467	8	2	3	3
0.5637426200119567	8	2	4	2
0.015033296287233228	8	2	4	4
-0.567878692058319	8	2	5	1
-0.008168469438423092	8	2	5	3
0.7490413424293981	8	2	5	5
0.004032397392060826	8	2	6	2
-0.7421765155805878	8	2	6	4
0.01686869844690294	8	2	6	6
-0.5719110894503798	8	2	7	1
0.7380404435342258	8	2	7	3
-0.010003871598092804	8	2	7	5
0.017430962908224212	8	2	7	7
-1.3059191355925448	8	2	8	2
0.005867799551730537	8	2	8	4
-0.010566136059414075	8	2	8	6
0.01785733859210307	8	2	8	8
-0.009665305661952754	8	3	2	1
-0.4974947452665472	8	3	3	2
-0.5071600509284999	8	3	4	1
-0.017907164375528455	8	3	4	3
-0.0082418587135757	8	3	5	2
0.01993123835729535	8	3	5	4
-0.5154019096420756	8	3	6	1
0.010265932695342593	8	3	6	3
-0.7846017673286049	8	3	6	5
0.5174259836238424	8	3	7	2
-0.7749364616666522	8	3	7	4
0.02233367019068261	8	3	7	6
0.0020240739817668925	8	3	8	1
-1.282096512595152	8	3	8	3
0.012668364528729858	8	3	8	5
-0.02308240662140636	8	3	8	7
-0.01933804796768492	8	4	1	1
0.4116107090919628	8	4	2	2
-0.43094875705964764	8	4	3	1
-0.03538633709536743	8	4	3	3
0.016048289127682514	8	4	4	2
-0.03891528499333452	8	4	4	4
-0.4469970461873302	8	4	5	1
0.019577237025649605	8	4	5	3
-0.04125413664709796	8	4	5	5
-0.45052599408529725	8	4	6	2
0.021916088679413054	8	4	6	4
-0.8338588009922623	8	4	6	6
0.003528947897967089	8	4	7	1
-0.4528648457390607	8	4	7	3
0.8145207530245775	8	4	7	5
-0.044077484035184404	8	4	7	7
0.005867799551730537	8	4	8	2
-1.245469510084225	8	4	8	4
0.024739436067499482	8	4	8	6
-0.04497059665896499	8	4	8	8
-0.32540385019256085	8	5	2	1
-0.03542383197331198	8	5	3	2
-0.3608276821658728	8	5	4	1
0.04163578365433039	8	5	4	3
0.36703963384689126	8	5	5	2
-0.04550362547381679	8	5	5	4
0.00621195168101841	8	5	6	1
-0.3709074756663776	8	5	6	3
0.04809219650204184	8	5	6	5
-0.010079793500504803	8	5	7	2
0.37349604669460273	8	5	7	4
-0.8663655919284851	8	5	7	6
-0.0038678418194863914	8	5	8	1
0.012668364528729858	8	5	8	3
-1.1917694421210459	8	5	8	5
0.051254643214534434	8	5	8	7
-0.15849917399792327	8	6	1	1
0.0860657131557067	8	6	2	2
-0.24456488715362995	8	6	3	1
0.097477570607121	8	6	3	3
-0.2559767446050442	8	6	4	2
0.10395839313887793	8	6	4	4
0.0114118574514143	8	6	5	1
-0.2624575671368012	8	6	5	3
0.1080437066665351	8	6	5	5
0.017892679983171227	8	6	6	2
-0.2665428806644583	8	6	6	4
0.1108051492232062	8	6	6	6
-0.006480822531756926	8	6	7	1
0.021977993510828374	8	6	7	3
-0.2693043232211294	8	6	7	5
0.9528060762632761	8	6	7	7
-0.010566136059414075	8	6	8	2
0.024739436067499482	8	6	8	4
-1.1113052502611993	8	6	8	6
0.1142175927227669	8	6	8	8
-0.08159660390105816	8	7	2	1
0.10683654899713078	8	7	3	2
0.025239945096072625	8	7	4	1
-0.1187930511545226	8	7	4	3
-0.037196447253464424	8	7	5	2
0.1256039580784406	8	7	5	4
-0.011956502157391798	8	7	6	1
0.044007354177382454	8	7	6	3
-0.12991895561853714	8	7	6	5
0.018767409081309826	8	7	7	2
-0.04832235171747898	8	7	7	4
0.1328512471155926	8	7	7	6
0.006810906923918029	8	7	8	1
-0.02308240662140636	8	7	8	3
0.051254643214534434	8	7	8	5
-0.9969454954653978	8	7	8	7
0.6052625956809483	8	8	1	1
0.5389286609278751	8	8	2	2
0.06633393475307327	8	8	3	1
0.5160498159598025	8	8	3	3
0.0892127797211459	8	8	4	2
0.5047692897878924	8	8	4	4
-0.02287884496807262	8	8	5	1
0.10049330589305594	8	8	5	3
0.4981924773676994	8	8	5	5
-0.034159371139982665	8	8	6	2
0.10707011831324897	8	8	6	4
0.4939580642689101	8	8	6	6
0.011280526171910044	8	8	7	1
-0.040736183560175686	8	8	7	3
0.11130453141203825	8	8	7	5
0.49104500295818143	8	8	7	7
0.01785733859210307	8	8	8	2
-0.04497059665896499	8	8	8	4
0.1142175927227669	8	8	8	6
-0.39359937221442026	8	8	8	8
-0.002306088071855452	9	1	1	1
-0.003811535764618125	9	1	2	2
0.001505447692762673	9	1	3	1
-0.004756628903382388	9	1	3	3
0.002450540831526936	9	1	4	2
0.6565194313304062	9	1	4	4
-0.0009450931387642631	9	1	5	1
-0.6588255194022616	9	1	5	3
-0.7387646750455472	9	1	5	5
0.6603309670950244	9	1	6	2
0.7364585869736918	9	1	6	4
-0.006150387418381573	9	1	6	6
-0.6612760602337886	9	1	7	1
-0.7349531392809291	9	1	7	3
0.0038442993465261205	9	1	7	5
-0.006391401599512602	9	1	7	7
0.7340080461421649	9	1	8	2
-0.0023388516537634478	9	1	8	4
0.004085313527657149	9	1	8	6
-0.006576812420193023	9	1	8	8
-1.3952841063759536	9	1	9	1
0.0013937585149991845	9	1	9	3
-0.0025798658348944762	9	1	9	5
0.0042707243483375715	9	1	9	7
-0.006722500672996589	9	1	9	9
-0.0042426290267504555	9	2	2	1
0.006715186640823166	9	2	3	2
0.00247255761407271	9	2	4	1
0.6111055125558889	9	2	4	3
0.6153481415826393	9	2	5	2
0.009371783741892207	9	2	5	4
0.617820699196712	9	2	6	1
0.005129154715141751	9	2	6	3
-0.7734097895938996	9	2	6	5
0.002656597101069041	9	2	7	2
-0.7691671605671493	9	2	7	4
0.010699041874461903	9	2	7	6
0.620477296297781	9	2	8	1
-0.7666946029530765	9	2	8	3
0.006456412847711447	9	2	8	5
-0.01112590446401456	9	2	8	7
-1.3845153021497885	9	2	9	2
0.003983855233638737	9	2	9	4
-0.006883275437264105	9	2	9	6
0.011457295779560412	9	2	9	8
0.008192097428957002	9	3	1	1
0.013269876410762797	9	3	2	2
-0.005077778981805794	9	3	3	1
-0.5539784856175851	9	3	3	3
0.5621705830465422	9	3	4	2
0.0183742474774652	9	3	4	4
-0.5672483620283479	9	3	5	1
-0.010182150048508197	9	3	5	3
0.01976800599246438	9	3	5	5
0.005104371066702402	9	3	6	2
-0.01157590856350738	9	3	6	4
0.8117423403076578	9	3	6	6
-0.5723527330950504	9	3	7	1
0.006498129581701587	9	3	7	3
-0.8035502428787006	9	3	7	5
0.021519676045042187	9	3	7	7
-0.5737464916100495	9	3	8	2
0.798472463896895	9	3	8	4
-0.013327578616085183	9	3	8	6
0.022091751690892364	9	3	8	8
0.0013937585149991845	9	3	9	1
-1.365720825925243	9	3	9	3
0.00824979963427939	9	3	9	5
-0.013899654261935358	9	3	9	7
0.022539377421413275	9	3	9	9
0.010627149591993595	9	4	2	1
0.4958994831100698	9	4	3	2
0.5065266327020634	9	4	4	1
0.019945077113521205	9	4	4	3
0.009317927521527611	9	4	5	2
-0.022290910642577717	9	4	5	4
0.515844560223591	9	4	6	1
-0.011663761050584124	9	4	6	3
0.023928932347159943	9	4	6	5
-0.5181903937526475	9	4	7	2
0.013301782755166348	9	4	7	4
-0.8415689095471666	9	4	7	6
-0.002345833529056513	9	4	8	1
0.5198284154572298	9	4	8	3
-0.830941759955173	9	4	8	5
0.026014698118461813	9	4	8	7
0.003983855233638737	9	4	9	2
-1.3374683926572366	9	4	9	4
0.015387548526468219	9	4	9	6
-0.026704093397576484	9	4	9	8
-0.020171651520868753	9	5	1	1
0.41014895579487753	9	5	2	2
-0.4303206073157463	9	5	3	1
-0.03728943769799021	9	5	3	3
0.017117786177121452	9	5	4	2
-0.04113963587614754	9	5	4	4
-0.4474383934928678	9	5	5	1
0.020967984355278784	9	5	5	3
-0.04371950171104201	9	5	5	5
-0.4512885916710251	9	5	6	2
0.02354785019017326	9	5	6	4
-0.0455392373322696	9	5	6	6
0.003850198178157332	9	5	7	1
-0.4538684575059196	9	5	7	3
0.025367585811400844	9	5	7	5
-0.8869120146284382	9	5	7	7
0.006430064013051808	9	5	8	2
-0.45568819312714715	9	5	8	4
0.8667403631075695	9	5	8	6
-0.04788365796969363	9	5	8	8
-0.0025798658348944762	9	5	9	1
0.00824979963427939	9	5	9	3
-1.2970609704233156	9	5	9	5
0.027712006448824874	9	5	9	7
-0.048666807949779754	9	5	9	9
0.32476316715237913	9	6	2	1
0.036507777728247905	9	6	3	2
0.36127094488062705	9	6	4	1
-0.0430416032504374	9	6	4	3
-0.36780477040281656	9	6	5	2
0.04715073661862406	9	6	5	4
-0.006533825522189499	9	6	6	1
0.37191390377100325	9	6	6	3
-0.0499248786877015	9	6	6	5
0.01064295889037616	9	6	7	2
-0.3746880458400807	9	6	7	4
0.05189532625471612	9	6	7	6
0.004109133368186659	9	6	8	1
-0.013417100959453605	9	6	8	3
0.37665849340709534	9	6	8	5
-0.9153488915643396	9	6	8	7
-0.006883275437264105	9	6	9	2
0.015387548526468219	9	6	9	4
-1.2401120587167187	9	6	9	6
0.05445619521339069	9	6	9	8
-0.15794147090845662	9	7	1	1
0.08706328936340865	9	7	2	2
-0.24500476027186527	9	7	3	1
0.09879618379275336	9	7	3	3
-0.25673765470120996	9	7	4	2
0.10551797118770873	9	7	4	4
0.011732894429344706	9	7	5	1
-0.26345944209616534	9	7	5	3
0.1097886955360463	9	7	5	5
0.018454681824300066	9	7	6	2
-0.2677301664445029	9	7	6	4
0.11269583805468875	9	7	6	6
-0.00672178739495536	9	7	7	1
0.022725406172637637	9	7	7	3
-0.2706373089631453	9	7	7	5
0.11477529581223353	9	7	7	7
-0.01099251174329293	9	7	8	2
0.025632548691280066	9	7	8	4
-0.2727167667206902	9	7	8	6
0.9988619678953686	9	7	8	8
0.0042707243483375715	9	7	9	1
-0.013899654261935358	9	7	9	3
0.027712006448824874	9	7	9	5
-1.1568034388038253	9	7	9	7
0.11750071954153439	9	7	9	9
0.08204480303861694	9	8	2	1
-0.10760705417258214	9	8	3	2
-0.025562251133965194	9	8	4	1
0.11980493384580745	9	8	4	3
0.03776013080719051	9	8	5	2
-0.12680143502059085	9	8	5	4
0.012197879673225312	9	8	6	1
-0.0447566319819739	9	8	6	3
0.13126222962536785	9	8	6	5
-0.019194380848008702	9	8	7	2
0.04921742658675093	9	8	7	4
-0.1343111475701586	9	8	7	6
-0.006996501174783392	9	8	8	1
0.02365517545278572	9	8	8	3
-0.05226634453154167	9	8	8	5
0.13650099825200765	9	8	8	7
0.011457295779560412	9	8	9	2
-0.026704093397576484	9	8	9	4
0.05445619521339069	9	8	9	6
-1.0399734989672018	9	8	9	8
0.6048711568739317	9	9	1	1
0.5382172244009894	9	9	2	2
0.06665393247294224	9	9	3	1
0.5150975709663144	9	9	3	3
0.08977358590761728	9	9	4	2
0.5036316725119562	9	9	4	4
-0.023119653434675036	9	9	5	1
0.1012394843619755	9	9	5	3
0.4969091718389596	9	9	5	5
-0.034585551889033235	9	9	6	2
0.10796198503497206	9	9	6	4
0.4925581935449011	9	9	6	6
0.011465898454358204	9	9	7	1
-0.04130805256202982	9	9	7	3
0.11231296332903055	9	9	7	5
0.48955041645120967	9	9	7	7
0.018188399127354794	9	9	8	2
-0.04565903085608831	9	9	8	4
0.11532074042272202	9	9	8	6
0.4873704373323973	9	9	8	8
-0.006722500672996589	9	9	9	1
0.022539377421413275	9	9	9	3
-0.048666807949779754	9	9	9	5
0.11750071954153439	9	9	9	7
-0.4343010646505206	9	9	9	9
-0.001540855471019086	10	1	2	1
0.0024914047946619174	10	1	3	2
0.0009505493236428316	10	1	4	1
-0.0031239279139640658	10	1	4	3
-0.00158307244294498	10	1	5	2
-0.6958318754461486	10	1	5	4
-0.0006325231193021484	10	1	6	1
-0.6973727309171674	10	1	6	3
-0.7671619337659715	10	1	6	5
-0.6983232802408105	10	1	7	2
-0.7656210782949524	10	1	7	4
0.004129426499244142	10	1	7	6
-0.6989558033601124	10	1	8	1
-0.7646705289713096	10	1	8	3
0.0025885710282250556	10	1	8	5
-0.004314997540096532	10	1	8	7
-0.7640380058520074	10	1	9	2
0.0016380217045822243	10	1	9	4
-0.0027741420690774454	10	1	9	6
0.00446079460477702	10	1	9	8
-1.4629938092121202	10	1	10	1
0.0010054985852800758	10	1	10	3
-0.001823592745434614	10	1	10	5
0.0029199391337579334	10	1	10	7
-0.004577427306845479	10	1	10	9
-0.003633358652002319	10	2	1	1
-0.00608051328020852	10	2	2	2
0.0024471546282062	10	2	3	1
-0.007655936448943833	10	2	3	3
0.004022577796941514	10	2	4	2
0.6531784801401742	10	2	4	4
-0.0015754231687353133	10	2	5	1
-0.6568118387921765	10	2	5	3
-0.009491338608613543	10	2	5	5
0.6592589934203829	10	2	6	2
0.005857979956611224	10	2	6	4
-0.8010240292791364	10	2	6	6
-0.660834416589118	10	2	7	1
-0.0034108253284050242	10	2	7	3
0.7973906706271341	10	2	7	5
-0.010480114736330577	10	2	7	7
0.001835402159669711	10	2	8	2
-0.7949435159989279	10	2	8	4
0.006846756084328258	10	2	8	6
-0.010811225518982316	10	2	8	8
-0.6626698187487877	10	2	9	1
0.7933680928301926	10	2	9	3
-0.004399601456122057	10	2	9	5
0.007177866866979998	10	2	9	7
-0.011073478967055071	10	2	9	9
-1.4542025094193105	10	2	10	2
0.002824178287386744	10	2	10	4
-0.004730712238773797	10	2	10	6
0.007440120315052752	10	2	10	8
-0.011284746696606882	10	2	10	10
0.005204472956791295	10	3	2	1
-0.008310448797300496	10	3	3	2
-0.003105975840509201	10	3	4	1
-0.609067599817896	10	3	4	3
-0.6142720727746873	10	3	5	2
-0.011731456027174578	10	3	5	4
-0.6173780486151965	10	3	6	1
-0.0065269830703832835	10	3	6	3
0.012736954612454653	10	3	6	5
-0.0034210072298740822	10	3	7	2
0.007532481655663359	10	3	7	4
-0.8299342812309459	10	3	7	6
-0.6207990558450707	10	3	8	1
0.004426505815154158	10	3	8	3
-0.8247298082741547	10	3	8	5
0.014058195961070014	10	3	8	7
0.6218045544303508	10	3	9	2
-0.8216238324336456	10	3	9	4
0.008853723004278719	10	3	9	6
-0.014506213724351173	10	3	9	8
0.0010054985852800758	10	3	10	1
-1.4390018810488419	10	3	10	3
0.005747747163769518	10	3	10	5
-0.009301740767559876	10	3	10	7
0.014863417998208433	10	3	10	9
0.009025700982140838	10	4	1	1
0.014731629707847992	10	4	2	2
-0.005705928725707152	10	4	3	1
-0.5520753850149624	10	4	3	3
0.5611010859971033	10	4	4	2
0.020598598360278213	10	4	4	4
-0.5668070147228104	10	4	5	1
-0.011572897378137376	10	4	5	3
0.02223337105640843	10	4	5	5
0.005866968652430224	10	4	6	2
-0.01320767007426759	10	4	6	4
0.023422776647664963	10	4	6	6
-0.5726739833752407	10	4	7	1
0.007501741348560438	10	4	7	3
-0.014397075665524122	10	4	7	5
0.8643542066382959	10	4	7	7
-0.5743087560713709	10	4	8	2
0.008691146939816968	10	4	8	4
-0.855328505656155	10	4	8	6
0.025004813001621003	10	4	8	8
0.0016347726961302132	10	4	9	1
-0.5754981616626273	10	4	9	3
0.849622576930448	10	4	9	5
-0.015979112019480168	10	4	9	7
0.02554715451510473	10	4	9	9
0.002824178287386744	10	4	10	2
-1.416429591653258	10	4	10	4
0.010273183293773015	10	4	10	6
-0.01652145353296389	10	4	10	8
0.025982083717779467	10	4	10	10
-0.011267832632175274	10	5	2	1
-0.4948155373551339	10	5	3	2
-0.5060833699873092	10	5	4	1
-0.021350896709628208	10	5	4	3
-0.010083064077452932	10	5	5	2
0.023938021787384987	10	5	5	4
-0.5161664340647621	10	5	6	1
0.012670189155209713	10	5	6	3
-0.025761614532819603	10	5	6	5
0.5187535591425189	10	5	7	2
-0.014493781900644327	10	5	7	4
0.027098643873397724	10	5	7	6
0.0025871250777567806	10	5	8	1
-0.5205771518879535	10	5	8	3
0.01583081124122245	10	5	8	5
-0.890108946468267	10	5	8	7
-0.004410717823191395	10	5	9	2
0.5219141812285316	10	5	9	4
-0.8788411138360918	10	5	9	6
0.028893944079425506	10	5	9	8
-0.001823592745434614	10	5	10	1
0.005747747163769518	10	5	10	3
-1.384924483823401	10	5	10	5
0.01762611144725023	10	5	10	7
-0.029514837916114145	10	5	10	9
-0.020729354610335392	10	6	1	1
0.4091513795871756	10	6	2	2
-0.429880734197511	10	6	3	1
-0.03860805088362257	10	6	3	3
0.017878696273287177	10	6	4	2
-0.04269921392497834	10	6	4	4
-0.4477594304707982	10	6	5	1
0.02196985931464294	10	6	5	3
-0.04546449058055322	10	6	5	5
-0.45185059351215395	10	6	6	2
0.024735135970217842	10	6	6	4
-0.04742992616375213	10	6	6	6
0.004091163041355767	10	6	7	1
-0.4546158701677288	10	6	7	3
0.026700571553416742	10	6	7	5
-0.04888123417739557	10	6	7	7
0.006856439696930665	10	6	8	2
-0.45658130575092776	10	6	8	4
0.02815187956706019	10	6	8	6
-0.9325280331422954	10	6	8	8
-0.0027652766555748983	10	6	9	1
0.008821875280129563	10	6	9	3
-0.4580326137645712	10	6	9	5
0.9117986785319601	10	6	9	7
-0.05084678706859215	10	6	9	9
-0.004730712238773797	10	6	10	2
0.010273183293773015	10	6	10	4
-1.3416794127294709	10	6	10	6
0.030117432458256762	10	6	10	8
-0.05153197655484293	10	6	10	10
-0.3243149680148204	10	7	2	1
-0.03727828290369925	10	7	3	2
-0.3615932509185196	10	7	4	1
0.04405348594172226	10	7	4	3
0.3683684539565426	10	7	5	2
-0.04834821356077428	10	7	5	4
0.006775203038023012	10	7	6	1
-0.37266318157559464	10	7	6	3
0.051268152694532214	10	7	6	5
-0.011069930657075035	10	7	7	2
0.3755831207093526	10	7	7	4
-0.053355226709282146	10	7	7	6
-0.004294727619052022	10	7	8	1
0.013989869790832969	10	7	8	3
-0.3776701947241025	10	7	8	5
0.05490439435094949	10	7	8	7
0.007214666752809956	10	7	9	2
-0.01607694380558289	10	7	9	4
0.37921936236576986	10	7	9	6
-0.9579286959285845	10	7	9	8
0.0029199391337579334	10	7	10	1
-0.009301740767559876	10	7	10	3
0.01762611144725023	10	7	10	5
-1.282243663943405	10	7	10	7
0.057016487995566405	10	7	10	9
-0.15755003210143995	10	8	1	1
0.08777472589029431	10	8	2	2
-0.24532475799173423	10	8	3	1
0.09974842878624143	10	8	3	3
-0.2572984608876814	10	8	4	2
0.10665558846364494	10	8	4	4
0.011973702895947118	10	8	5	1
-0.2642056205650849	10	8	5	3
0.1110720010647861	10	8	5	5
0.01888086257335064	10	8	6	2
-0.268622033166226	10	8	6	4
0.11409570877869771	10	8	6	6
-0.00690715967740352	10	8	7	1
0.023297275174491778	10	8	7	3
-0.27164574088013765	10	8	7	5
0.11626988231920532	10	8	7	7
-0.011323572278544657	10	8	8	2
0.02632098288840339	10	8	8	4
-0.27381991442064524	10	8	8	6
0.11789215834855109	10	8	8	8
0.004416412601141137	10	8	9	1
-0.014347279992456273	10	8	9	3
0.028495156428911005	10	8	9	5
-0.275442190449991	10	8	9	7
1.0391722215244523	10	8	9	9
0.007440120315052752	10	8	10	2
-0.01652145353296389	10	8	10	4
0.030117432458256762	10	8	10	6
-1.1967222536258921	10	8	10	8
0.12011829834999498	10	8	10	10
-0.08237061154144874	10	9	2	1
0.10817455498266128	10	9	3	2
0.025803943441212545	10	9	4	1
-0.12055809406470006	10	9	4	3
-0.038187482523251305	10	9	5	2
0.12770041105747829	10	9	5	4
-0.012383539082038757	10	9	6	1
0.04532979951602955	10	9	6	3
-0.13227783836432375	10	9	6	5
0.019525856074816998	10	9	7	2
-0.049907226822875024	10	9	7	4
0.13542151206290848	10	9	7	6
0.00714231699277824	10	9	8	1
-0.024103283381662476	10	9	8	3
0.053050900521459735	10	9	8	5
-0.13768939289877544	10	9	8	7
-0.011719744299623719	10	9	9	2
0.02724695708024719	10	9	9	4
-0.055318781357326686	10	9	9	6
0.13938709953701514	10	9	9	8
-0.004577427306845479	10	9	10	1
0.014863417998208433	10	9	10	3
-0.029514837916114145	10	9	10	5
0.057016487995566405	10	9	10	7
-1.0779393085170006	10	9	10	9
0.6045858759153504	10	10	1	1
0.5376918934905589	10	10	2	2
0.06689398242479158	10	10	3	1
0.5143869850388196	10	10	3	3
0.09019889087653082	10	10	4	2
0.5027754284108735	10	10	4	4
-0.02330490845173923	10	10	5	1
0.10181044750447693	10	10	5	3
0.49593637228670245	10	10	5	5
-0.03491646507968535	10	10	6	2
0.10864950362864795	10	10	6	4
0.49149068171426663	10	10	6	6
0.011611556627946114	10	10	7	1
-0.04175552120385635	10	10	7	3
0.11309519420108381	10	10	7	5
0.48840490132104014	10	10	7	7
0.01845061275211713	10	10	8	2
-0.046201211776292224	10	10	8	4
0.11618097459431029	10	10	8	6
0.4861599169357159	10	10	8	8
-0.006839056124171017	10	10	9	1
0.022896303324552992	10	10	9	3
-0.04928699216951869	10	10	9	5
0.1184259589796345	10	10	9	7
0.48446757756535547	10	10	9	9
-0.011284746696606882	10	10	10	2
0.025982083717779467	10	10	10	4
-0.05153197655484293	10	10	10	6
0.12011829834999498	10	10	10	8
-0.47041541663350916	10	10	10	10
0.0013272705801468671	11	1	1	1
0.0022689775155903943	11	1	2	2
-0.0009417069354435273	11	1	3	1
0.002899307545561445	11	1	3	3
-0.0015720369654145775	11	1	4	2
0.0033409511902319712	11	1	4	4
0.0006303300299710503	11	1	5	1
-0.002013680610085104	11	1	5	3
-0.7292733364369337	11	1	5	5
0.0010719736746415767	11	1	6	2
0.7306006070170805	11	1	6	4
0.7948736418607548	11	1	6	6
-0.0004416436446705264	11	1	7	1
-0.7315423139525241	11	1	7	3
-0.793546371280608	11	1	7	5
0.004088713136817975	11	1	7	7
0.7321726439824952	11	1	8	2
0.7926046643451644	11	1	8	4
-0.0027614425566711083	11	1	8	6
0.004234413098789294	11	1	8	8
-0.7326142876271656	11	1	9	1
-0.7919743343151934	11	1	9	3
0.001819735621227581	11	1	9	5
-0.0029071425186424265	11	1	9	7
0.004350978294058482	11	1	9	9
0.7915326906705229	11	1	10	2
-0.0011894055912565306	11	1	10	4
0.0019654355831988995	11	1	10	6
-0.003023707713911615	11	1	10	8
0.004445690572435864	11	1	10	10
-1.5241469782976889	11	1	11	1
0.0007477619465860041	11	1	11	3
-0.001335105553227849	11	1	11	5
0.002082000778468088	11	1	11	7
-0.0031184199922889965	11	1	11	9
0.004523690806933697	11	1	11	11
0.002502699401059926	11	2	2	1
-0.004086666951139248	11	2	3	2
-0.0015839675500793223	11	2	4	1
0.0051618406519568175	11	2	4	3
0.002659141250896892	11	2	5	2
0.6934722031608661	11	2	5	4
0.0010751737008175696	11	2	6	1
0.6959749025619261	11	2	6	3
0.006489098784526514	11	2	6	5
0.6975588701120053	11	2	7	2
0.003986399383466588	11	2	7	4
-0.8233646658557282	11	2	7	6
0.6986340438128228	11	2	8	1
0.002402431833387266	11	2	8	3
-0.8208619664546682	11	2	8	5
0.007247289037151986	11	2	8	7
0.001327258132569696	11	2	9	2
-0.819277998904589	11	2	9	4
0.00474458963609206	11	2	9	6
-0.007509712549567781	11	2	9	8
0.6999613019453927	11	2	10	1
-0.8182028252037715	11	2	10	3
0.003160622086012738	11	2	10	5
-0.005007013148507855	11	2	10	7
0.007721101005430193	11	2	10	9
-1.5168368690165945	11	2	11	2
0.002085448385195168	11	2	11	4
-0.0034230455984285324	11	2	11	6
0.005218401604370267	11	2	11	8
-0.007893894301862138	11	2	11	10
-0.004466962205186155	11	3	1	1
-0.007542266577293713	11	3	2	2
0.0030753043721075584	11	3	3	1
-0.009559037051566606	11	3	3	3
0.00509207484638045	11	3	4	2
0.6509541292573613	11	3	4	4
-0.002016770474272892	11	3	5	1
-0.6554210914625475	11	3	5	3
-0.011956703672557589	11	3	5	5
0.6584963958346549	11	3	6	2
0.007489741467371433	11	3	6	4
-0.012704465619143594	11	3	6	6
-0.6605131663089279	11	3	7	1
-0.004414437095263875	11	3	7	3
0.008237503413957438	11	3	7	5
-0.8533146453295843	11	3	7	7
0.0023976666209909827	11	3	8	2
-0.005162199041849879	11	3	8	4
0.8488476831243982	11	3	8	6
-0.013724286829710962	11	3	8	8
-0.6629108329299189	11	3	9	1
0.0031454285675769867	11	3	9	3
-0.8457723787522905	11	3	9	5
0.009257324624524808	11	3	9	7
-0.014081256060746526	11	3	9	9
-0.6636585948765049	11	3	10	2
0.8437556082780178	11	3	10	4
-0.0061820202524172484	11	3	10	6
0.00961429385556037	11	3	10	8
-0.014370527089833348	11	3	10	10
0.0007477619465860041	11	3	11	1
-1.5042687745869456	11	3	11	3
0.0041652497781443565	11	3	11	5
-0.006538989483452812	11	3	11	7
0.009903564884647194	11	3	11	9
-0.014608235641109909	11	3	11	11
-0.005845155996972976	11	4	2	1
0.009394394552236408	11	4	3	2
0.0035492385552634326	11	4	4	1
0.6076617802217891	11	4	4	3
0.6135069362187621	11	4	5	2
0.013378567171981846	11	4	5	4
0.6170561747740255	11	4	6	1
0.007533411175008871	11	4	6	3
-0.014569636798114311	11	4	6	5
0.003984172619745439	11	4	7	2
-0.008724480801141337	11	4	7	4
0.015464015557177012	11	4	7	6
0.6210403473937709	11	4	8	1
-0.005175242245877905	11	4	8	3
0.00961885956020404	11	4	8	5
-0.8781524443108751	11	4	8	7
-0.6222314170199034	11	4	9	2
0.006069621004940607	11	4	9	4
-0.8723072883139023	11	4	9	6
0.01669606440620019	11	4	9	8
-0.0011910696261324656	11	4	10	1
0.6231257957789661	11	4	10	3
-0.8687580497586389	11	4	10	5
0.010850908409227217	11	4	10	7
-0.01713129883407539	11	4	10	9
0.002085448385195168	11	4	11	2
-1.4858142245326642	11	4	11	4
0.007301669853963785	11	4	11	6
-0.011286142837102412	11	4	11	8